                         Program Version 4.2.0 -  RELEASE  -
|  1> !Def2-svp def2-SVP/C tightscf  FCI
|  2> %pal nproc 36 end
|  3> %maxcore 18000
|  4> %fci
|  5>  nroots 10
|  6> end
|  7> * xyz 0 1
|  8>  C                  0.00000000    0.66001700    0.00000000
|  9>  H                  0.92174200    1.22995100    0.00000000
| 10>  H                 -0.92173100    1.22993700    0.00000000
| 11>  C                  0.00000000   -0.66001700    0.00000000
| 12>  H                 -0.92174200   -1.22995100    0.00000000
| 13>  H                  0.92173100   -1.22993700    0.00000000
| 14> *
| 15>
| 16>                          ****END OF INPUT****

CARTESIAN COORDINATES (ANGSTROEM)
---------------------------------
  C      0.000000    0.660017    0.000000
  H      0.921742    1.229951    0.000000
  H     -0.921731    1.229937    0.000000
  C      0.000000   -0.660017    0.000000
  H     -0.921742   -1.229951    0.000000
  H      0.921731   -1.229937    0.000000

 Total Charge           Charge          ....    0
 Multiplicity           Mult            ....    1
 Number of Electrons    NEL             ....   16
 Basis Dimension        Dim             ....   48

ORBITAL ENERGIES
----------------

  NO   OCC          E(Eh)            E(eV)
   0   2.0000     -11.234080      -305.6949
   1   2.0000     -11.232353      -305.6479
   2   2.0000      -1.025044       -27.8929
   3   2.0000      -0.782008       -21.2795
   4   2.0000      -0.642528       -17.4841
   5   2.0000      -0.590986       -16.0815
   6   2.0000      -0.503334       -13.6964
   7   2.0000      -0.380016       -10.3408
   8   0.0000       0.168047         4.5728
   9   0.0000       0.206084         5.6078
  10   0.0000       0.231571         6.3014
  11   0.0000       0.240793         6.5523
  12   0.0000       0.304497         8.2858

MULLIKEN ATOMIC CHARGES
-----------------------
   0 C :   -0.113376
   1 H :    0.056690
   2 H :    0.056685
   3 C :   -0.113376
   4 H :    0.056690
   5 H :    0.056685
Sum of atomic charges:    0.0000000

LOEWDIN ATOMIC CHARGES
----------------------
   0 C :   -0.043073
   1 H :    0.021539
   2 H :    0.021535
   3 C :   -0.043073
   4 H :    0.021539
   5 H :    0.021535

  Mayer bond orders larger than 0.100000
B(  0-C ,  1-H ) :   0.9802 B(  0-C ,  2-H ) :   0.9802 B(  0-C ,  3-C ) :   2.0277
B(  3-C ,  4-H ) :   0.9802 B(  3-C ,  5-H ) :   0.9802

FINAL SINGLE POINT ENERGY       -77.977992675856

DIPOLE MOMENT
-------------
                                X             Y             Z
Electronic contribution:      0.00000      -0.00000       0.00000
Nuclear contribution   :      0.00000       0.00000       0.00000
                        -----------------------------------------
Total Dipole Moment    :      0.00000      -0.00000       0.00000
                        -----------------------------------------
Magnitude (a.u.)       :      0.00000
Magnitude (Debye)      :      0.00000

Rotational constants in cm-1:     4.921107     1.017729     0.843322
Rotational constants in MHz : 147531.075851 30510.752314 25282.171950

                             ****ORCA TERMINATED NORMALLY****
TOTAL RUN TIME: 0 days 0 hours 48 minutes 5 seconds 623 msec
